n -t * -s 0  -x 0 -y 0 -Z 0 -z 30  -v circle -c black
n -t * -s 1  -x 0 -y 0 -Z 0 -z 30  -v circle -c black
n -t * -s 2  -x 0 -y 0 -Z 0 -z 30  -v circle -c black
n -t * -s 3  -x 0 -y 0 -Z 0 -z 30  -v circle -c black
n -t * -s 4  -x 0 -y 0 -Z 0 -z 30  -v circle -c black
n -t * -s 5  -x 0 -y 0 -Z 0 -z 30  -v circle -c black
n -t * -s 6  -x 0 -y 0 -Z 0 -z 30  -v circle -c black
n -t * -s 7  -x 0 -y 0 -Z 0 -z 30  -v circle -c black
n -t * -s 8  -x 0 -y 0 -Z 0 -z 30  -v circle -c black
n -t * -s 9  -x 0 -y 0 -Z 0 -z 30  -v circle -c black
n -t * -s 10  -x 0 -y 0 -Z 0 -z 30  -v circle -c black
n -t * -s 11  -x 0 -y 0 -Z 0 -z 30  -v circle -c black
n -t * -s 12  -x 0 -y 0 -Z 0 -z 30  -v circle -c black
n -t * -s 13  -x 0 -y 0 -Z 0 -z 30  -v circle -c black
n -t * -s 14  -x 0 -y 0 -Z 0 -z 30  -v circle -c black
V -t * -v 1.0a5 -a 0
W -t * -x 500 -y 500
A -t * -n 1 -p 0 -o 0x7fffffff -c 30 -a 1
A -t * -h 1 -m 1073741823 -s 0
n -t 0.000000 -s 0 -x 0.000000 -y 0.000000 -U 11.584082 -V 3.131938 -T 25.345453
n -t 0.000000 -s 1 -x 10.000000 -y 60.000000 -U 7.515771 -V 9.354848 -T 23.011638
n -t 0.000000 -s 2 -x 20.000000 -y 120.000000 -U 6.521664 -V 10.073128 -T 10.219348
n -t 0.000000 -s 3 -x 3.000000 -y 240.000000 -U 11.956665 -V -1.018906 -T 17.107541
n -t 0.000000 -s 4 -x 4.000000 -y 300.000000 -U 11.970738 -V -0.837522 -T 32.837322
n -t 0.000000 -s 5 -x 300.000000 -y 0.000000 -U 1.530758 -V 11.901965 -T 27.900750
n -t 0.000000 -s 6 -x 360.000000 -y 60.000000 -U 6.386734 -V 10.159214 -T 14.828732
n -t 0.000000 -s 7 -x 420.000000 -y 120.000000 -U 2.828996 -V 11.661766 -T 12.964009
n -t 0.000000 -s 8 -x 480.000000 -y 180.000000 -U -11.980170 -V -0.689584 -T 21.637140
n -t 0.000000 -s 9 -x 540.000000 -y 240.000000 -U -10.859806 -V -5.105351 -T 39.478971
n -t 0.000000 -s 10 -x 420.000000 -y 0.000000 -U -9.580106 -V 7.226450 -T 22.732565
n -t 0.000000 -s 11 -x 480.000000 -y 60.000000 -U -11.835863 -V 1.977967 -T 21.295589
n -t 0.000000 -s 12 -x 150.000000 -y 80.000000 -U 11.994065 -V -0.377374 -T 25.428763
n -t 0.000000 -s 13 -x 275.000000 -y 180.000000 -U -11.962543 -V -0.947402 -T 14.917439
n -t 0.000000 -s 14 -x 300.000000 -y 240.000000 -U -11.320487 -V 3.980776 -T 12.160716
n -t 0.1 -s 5 -S COLOR -c green -o black -i green -I black
n -t 0.10000000000000001 -s 5 -S DLABEL -l "SOURCE" -L ""
n -t 1 -s 5 -S DLABEL -l "ACK requested" -L "SOURCE"
v -t 1 -e sim_annotation 1 1 ack_request send
n -t 1.000000 -s 0 -x 11.584082 -y 3.131938 -U 3.142986 -V 11.581090 -T 32.746083
n -t 1.000000 -s 1 -x 17.515771 -y 69.354848 -U 5.598368 -V 10.614060 -T 7.267326
n -t 1.000000 -s 2 -x 26.521664 -y 130.073128 -U 5.377871 -V 10.727465 -T 11.075419
n -t 1.000000 -s 3 -x 14.956665 -y 238.981094 -U 11.488971 -V 3.464612 -T 20.277620
n -t 1.000000 -s 4 -x 15.970738 -y 299.162478 -U 4.896007 -V -10.955780 -T 26.256748
n -t 1.000000 -s 5 -x 301.530758 -y 11.901965 -U -6.078108 -V 10.346816 -T 35.366487
n -t 1.000000 -s 6 -x 366.386734 -y 70.159214 -U -3.770005 -V 11.392413 -T 20.682267
n -t 1.000000 -s 7 -x 422.828996 -y 131.661766 -U -11.498391 -V 3.433221 -T 31.692506
n -t 1.000000 -s 8 -x 468.019830 -y 179.310416 -U -3.815521 -V -11.377249 -T 3.053740
n -t 1.000000 -s 9 -x 529.140194 -y 234.894649 -U -11.476576 -V 3.505453 -T 30.657001
n -t 1.000000 -s 10 -x 410.419894 -y 7.226450 -U -9.900111 -V 6.781430 -T 32.992367
n -t 1.000000 -s 11 -x 468.164137 -y 61.977967 -U -11.763795 -V 2.369202 -T 21.049559
n -t 1.000000 -s 12 -x 161.994065 -y 79.622626 -U 10.911714 -V 4.993445 -T 12.647931
n -t 1.000000 -s 13 -x 263.037457 -y 179.052598 -U -11.491442 -V 3.456407 -T 12.773812
n -t 1.000000 -s 14 -x 288.679513 -y 243.980776 -U -2.423035 -V -11.752825 -T 20.499797
n -t 2 -s 5 -S DLABEL -l "destination_found" -L "ACK requested"
n -t 2 -s 11 -S DLABEL -l "DESTINATION" -L ""
n -t 2 -s 11 -S COLOR -c blue -o black -i blue -I black
v -t 2 -e sim_annotation 2 2 ack_ request receiver 
n -t 2.000000 -s 0 -x 14.727068 -y 14.713028 -U 2.504378 -V 11.735761 -T 26.808387
n -t 2.000000 -s 1 -x 23.114139 -y 79.968908 -U 11.935441 -V 1.243076 -T 23.921648
n -t 2.000000 -s 2 -x 31.899535 -y 140.800593 -U 10.576797 -V 5.668454 -T 22.719428
n -t 2.000000 -s 3 -x 26.445636 -y 242.445706 -U 6.858998 -V -9.846530 -T 15.975431
n -t 2.000000 -s 4 -x 20.866745 -y 288.206698 -U 9.761127 -V -6.980000 -T 23.586241
n -t 2.000000 -s 5 -x 295.452650 -y 22.248781 -U -9.998332 -V 6.635763 -T 14.460821
n -t 2.000000 -s 6 -x 362.616729 -y 81.551627 -U 1.067537 -V 11.952421 -T 24.661047
n -t 2.000000 -s 7 -x 411.330606 -y 135.094987 -U -4.001425 -V 11.313205 -T 22.716715
n -t 2.000000 -s 8 -x 464.204309 -y 167.933167 -U -7.417342 -V 9.433082 -T 8.479418
n -t 2.000000 -s 9 -x 517.663618 -y 238.400102 -U -2.641661 -V 11.705624 -T 9.075591
n -t 2.000000 -s 10 -x 400.519783 -y 14.007880 -U -1.862148 -V 11.854636 -T 20.599757
n -t 2.000000 -s 11 -x 456.400342 -y 64.347169 -U -7.803956 -V 9.115825 -T 35.412459
n -t 2.000000 -s 12 -x 172.905779 -y 84.616071 -U 6.359174 -V 10.176488 -T 14.949373
n -t 2.000000 -s 13 -x 251.546015 -y 182.509005 -U 8.673936 -V -8.292336 -T 3.686689
n -t 2.000000 -s 14 -x 286.256478 -y 232.227951 -U -10.659438 -V -5.511478 -T 24.797179
n -t 3 -s 5 -S DLABEL -l "destination_found" -L "destination_found"
n -t 3 -s 11 -S DLABEL -l "DESTINATION" -L "DESTINATION"
n -t 3 -s 11 -S COLOR -c blue -o blue -i blue -I blue
v -t 3 -e sim_annotation 3 3 finding_destination
n -t 3.000000 -s 0 -x 17.231446 -y 26.448790 -U 8.335269 -V 8.632687 -T 6.542145
n -t 3.000000 -s 1 -x 35.049581 -y 81.211985 -U 8.939594 -V 8.005227 -T 13.116033
n -t 3.000000 -s 2 -x 42.476332 -y 146.469047 -U -7.011901 -V -9.738237 -T 4.015863
n -t 3.000000 -s 3 -x 33.304634 -y 232.599177 -U 0.015725 -V 11.999990 -T 10.188246
n -t 3.000000 -s 4 -x 30.627872 -y 281.226698 -U 7.667758 -V -9.230682 -T 12.127917
n -t 3.000000 -s 5 -x 285.454317 -y 28.884544 -U 2.092571 -V 11.816139 -T 13.679544
n -t 3.000000 -s 6 -x 363.684266 -y 93.504047 -U -11.964452 -V 0.922976 -T 16.196041
n -t 3.000000 -s 7 -x 407.329181 -y 146.408192 -U 3.602356 -V 11.446529 -T 12.823314
n -t 3.000000 -s 8 -x 456.786967 -y 177.366249 -U -11.241332 -V -4.199103 -T 34.529045
n -t 3.000000 -s 9 -x 515.021957 -y 250.105726 -U -11.708931 -V -2.626961 -T 30.030487
n -t 3.000000 -s 10 -x 398.657635 -y 25.862517 -U -8.541046 -V 8.429148 -T 40.698737
n -t 3.000000 -s 11 -x 448.596386 -y 73.462995 -U -11.944124 -V -1.156679 -T 36.735783
n -t 3.000000 -s 12 -x 179.264952 -y 94.792559 -U -0.293743 -V 11.996404 -T 23.180336
n -t 3.000000 -s 13 -x 260.219951 -y 174.216669 -U -8.267645 -V -8.697474 -T 19.304970
n -t 3.000000 -s 14 -x 275.597041 -y 226.716473 -U -11.934081 -V -1.256069 -T 13.758856
v -t 4 -e sim_annotation 4 4 Destination found
n -t 4.000000 -s 0 -x 25.566715 -y 35.081477 -U 11.496644 -V 3.439065 -T 37.337499
n -t 4.000000 -s 1 -x 43.989174 -y 89.217212 -U 10.851498 -V -5.122987 -T 11.581304
n -t 4.000000 -s 2 -x 35.464431 -y 136.730810 -U 10.131654 -V 6.430364 -T 33.473095
n -t 4.000000 -s 3 -x 33.320359 -y 244.599166 -U 7.426149 -V -9.426150 -T 2.906438
n -t 4.000000 -s 4 -x 38.295630 -y 271.996017 -U 9.431350 -V -7.419544 -T 12.491677
n -t 4.000000 -s 5 -x 287.546888 -y 40.700683 -U -11.695238 -V -2.687266 -T 11.603413
n -t 4.000000 -s 6 -x 351.719814 -y 94.427023 -U 11.981834 -V 0.660034 -T 11.298477
n -t 4.000000 -s 7 -x 410.931537 -y 157.854721 -U 3.146838 -V 11.580044 -T 16.854480
n -t 4.000000 -s 8 -x 445.545636 -y 173.167146 -U -11.433792 -V 3.642581 -T 19.194073
n -t 4.000000 -s 9 -x 503.313026 -y 247.478765 -U -9.737035 -V 7.013569 -T 13.438743
n -t 4.000000 -s 10 -x 390.116589 -y 34.291664 -U -11.632700 -V 2.946235 -T 1.824145
n -t 4.000000 -s 11 -x 436.652262 -y 72.306316 -U -7.146233 -V 9.640091 -T 14.425089
n -t 4.000000 -s 12 -x 178.971209 -y 106.788963 -U -11.977741 -V -0.730560 -T 12.877397
n -t 4.000000 -s 13 -x 251.952306 -y 165.519196 -U 9.175816 -V -7.733330 -T 11.597434
n -t 4.000000 -s 14 -x 263.662960 -y 225.460403 -U -8.611871 -V -8.356775 -T 13.885247
n -t 4.000000 -s 0 -x 25.566715 -y 35.081477 -U 11.350239 -V 3.895136 -T 30.566613
n -t 4.000000 -s 1 -x 43.989174 -y 89.217212 -U 10.511686 -V 5.788303 -T 28.448485
n -t 4.000000 -s 2 -x 35.464431 -y 136.730810 -U 11.348814 -V 3.899284 -T 25.095704
n -t 4.000000 -s 3 -x 33.320359 -y 244.599166 -U 11.212538 -V -4.275393 -T 29.194268
n -t 4.000000 -s 4 -x 38.295630 -y 271.996017 -U 11.822127 -V 2.058474 -T 36.859604
n -t 4.000000 -s 5 -x 287.546888 -y 40.700683 -U 2.899978 -V 11.644317 -T 13.129717
n -t 4.000000 -s 6 -x 351.719814 -y 94.427023 -U -11.933592 -V -1.260705 -T 27.236563
n -t 4.000000 -s 7 -x 410.931537 -y 157.854721 -U -0.049279 -V -11.999899 -T 12.701064
n -t 4.000000 -s 8 -x 445.545636 -y 173.167146 -U -11.295598 -V 4.050861 -T 7.964539
n -t 4.000000 -s 9 -x 503.313026 -y 247.478765 -U -11.991291 -V -0.457110 -T 13.981909
n -t 4.000000 -s 10 -x 390.116589 -y 34.291664 -U 11.049954 -V 4.679585 -T 5.147001
n -t 4.000000 -s 11 -x 436.652262 -y 72.306316 -U 0.167984 -V 11.998824 -T 9.000369
n -t 4.000000 -s 12 -x 178.971209 -y 106.788963 -U 9.094326 -V 7.829000 -T 22.227144
n -t 4.000000 -s 13 -x 251.952306 -y 165.519196 -U 10.811520 -V 5.206827 -T 10.724356
n -t 4.000000 -s 14 -x 263.662960 -y 225.460403 -U 9.532065 -V 7.289700 -T 22.393765
n -t 4.5 -s 5 -S DLABEL -l "sybil attacker_found" -L "destination_found"
n -t 4.5 -s 1 -S COLOR -c red -o black -i red -I black
n -t 4.5 -s 1 -S DLABEL -l "sybil attacker node" -L ""
n -t 4.5 -s 3 -S COLOR -c red -o black -i red -I black
n -t 4.5 -s 3 -S DLABEL -l "sybil attacker node" -L ""
n -t 4.5 -s 13 -S COLOR -c red -o black -i red -I black
n -t 4.5 -s 13 -S DLABEL -l "sybil attacker node" -L ""
n -t 4.5 -s 7 -S COLOR -c red -o black -i red -I black
n -t 4.5 -s 7 -S DLABEL -l "sybil attacker node" -L ""
n -t 4.5 -s 9 -S COLOR -c red -o black -i red -I black
n -t 4.5 -s 9 -S DLABEL -l "sybil attacker node" -L ""
n -t 5 -s 5 -S DLABEL -l "data_sending" -L "sybil attacker_found"
n -t 5 -s 11 -S DLABEL -l "data_receiving" -L "DESTINATION"
+ -t 5.000000000 -s 5 -d -1 -p tcp -e 40 -c 2 -a 0 -i 0 -k AGT 
- -t 5.000000000 -s 5 -d -1 -p tcp -e 40 -c 2 -a 0 -i 0 -k AGT
h -t 5.000000000 -s 5 -d -1 -p tcp -e 40 -c 2 -a 0 -i 0 -k AGT
v -t 5 -e sim_annotation 5 5 Data send receive
n -t 5.000000 -s 0 -x 36.916953 -y 38.976613 -U 11.553923 -V 3.241429 -T 13.255996
n -t 5.000000 -s 1 -x 54.500861 -y 95.005515 -U 9.739219 -V 7.010536 -T 0.733896
n -t 5.000000 -s 2 -x 46.813245 -y 140.630094 -U -0.755583 -V 11.976189 -T 12.750811
n -t 5.000000 -s 3 -x 44.532897 -y 240.323773 -U 5.638830 -V 10.592620 -T 14.667125
n -t 5.000000 -s 4 -x 50.117757 -y 274.054491 -U 10.687819 -V -5.456238 -T 31.833719
n -t 5.000000 -s 5 -x 290.446866 -y 52.345001 -U 7.700692 -V 9.203225 -T 25.028392
n -t 5.000000 -s 6 -x 339.786222 -y 93.166318 -U 2.503199 -V 11.736013 -T 23.523764
n -t 5.000000 -s 7 -x 410.882257 -y 145.854822 -U -5.258350 -V 10.786554 -T 20.596265
n -t 5.000000 -s 8 -x 434.250038 -y 177.218007 -U -11.689515 -V 2.712052 -T 29.555383
n -t 5.000000 -s 9 -x 491.321735 -y 247.021655 -U -11.998801 -V -0.169623 -T 32.538517
n -t 5.000000 -s 10 -x 401.166543 -y 38.971249 -U -11.913160 -V -1.441045 -T 20.012005
n -t 5.000000 -s 11 -x 436.820246 -y 84.305140 -U -9.044652 -V -7.886335 -T 5.996782
n -t 5.000000 -s 12 -x 188.065535 -y 114.617963 -U -5.529621 -V 10.650037 -T 18.361276
n -t 5.000000 -s 13 -x 262.763825 -y 170.726022 -U -11.746432 -V -2.453840 -T 4.928893
n -t 5.000000 -s 14 -x 273.195025 -y 232.750104 -U -11.990424 -V -0.479303 -T 10.652896
n -t 5.000000 -s 0 -x 36.916953 -y 38.976613 -U -1.477901 -V 11.908644 -T 12.187770
n -t 5.000000 -s 1 -x 54.500861 -y 95.005515 -U 0.434827 -V -11.992119 -T 3.771996
n -t 5.000000 -s 2 -x 46.813245 -y 140.630094 -U 3.938122 -V 11.335396 -T 21.789356
n -t 5.000000 -s 3 -x 44.532897 -y 240.323773 -U 10.345535 -V -6.080288 -T 37.650377
n -t 5.000000 -s 4 -x 50.117757 -y 274.054491 -U 11.887423 -V 1.639870 -T 35.387247
n -t 5.000000 -s 5 -x 290.446866 -y 52.345001 -U -3.751410 -V 11.398549 -T 26.773906
n -t 5.000000 -s 6 -x 339.786222 -y 93.166318 -U -11.543340 -V 3.278916 -T 9.451276
n -t 5.000000 -s 7 -x 410.882257 -y 145.854822 -U -10.320371 -V 6.122903 -T 4.176795
n -t 5.000000 -s 8 -x 434.250038 -y 177.218007 -U -11.770760 -V -2.334352 -T 36.242138
n -t 5.000000 -s 9 -x 491.321735 -y 247.021655 -U -11.760582 -V -2.385103 -T 20.633386
n -t 5.000000 -s 10 -x 401.166543 -y 38.971249 -U -6.812675 -V 9.878636 -T 26.899634
n -t 5.000000 -s 11 -x 436.820246 -y 84.305140 -U -0.331643 -V 11.995416 -T 26.218440
n -t 5.000000 -s 12 -x 188.065535 -y 114.617963 -U 11.999990 -V 0.015446 -T 19.378480
n -t 5.000000 -s 13 -x 262.763825 -y 170.726022 -U 0.932450 -V 11.963718 -T 6.223636
n -t 5.000000 -s 14 -x 273.195025 -y 232.750104 -U -10.279788 -V -6.190796 -T 25.987941
+ -t 5.000141221 -s 5 -d -1 -p DSR -e 32 -c 2 -a 0 -i 1 -k RTR 
- -t 5.000141221 -s 5 -d -1 -p DSR -e 32 -c 2 -a 0 -i 1 -k RTR
h -t 5.000141221 -s 5 -d -1 -p DSR -e 32 -c 2 -a 0 -i 1 -k RTR
+ -t 5.006119828 -s 11 -d 5 -p DSR -e 44 -c 2 -a 0 -i 2 -k RTR 
- -t 5.006119828 -s 11 -d 5 -p DSR -e 44 -c 2 -a 0 -i 2 -k RTR
h -t 5.006119828 -s 11 -d 5 -p DSR -e 44 -c 2 -a 0 -i 2 -k RTR
+ -t 5.011446325 -s 5 -d 11 -p tcp -e 76 -c 2 -a 0 -i 0 -k RTR 
- -t 5.011446325 -s 5 -d 11 -p tcp -e 76 -c 2 -a 0 -i 0 -k RTR
h -t 5.011446325 -s 5 -d 11 -p tcp -e 76 -c 2 -a 0 -i 0 -k RTR
r -t 5.013639824 -s 11 -d 11 -p tcp -e 40 -c 2 -a 0 -i 0 -k AGT
+ -t 5.013639824 -s 11 -d -1 -p ack -e 40 -c 2 -a 0 -i 3 -k AGT 
- -t 5.013639824 -s 11 -d -1 -p ack -e 40 -c 2 -a 0 -i 3 -k AGT
h -t 5.013639824 -s 11 -d -1 -p ack -e 40 -c 2 -a 0 -i 3 -k AGT
+ -t 5.013639824 -s 11 -d 5 -p ack -e 76 -c 2 -a 0 -i 3 -k RTR 
- -t 5.013639824 -s 11 -d 5 -p ack -e 76 -c 2 -a 0 -i 3 -k RTR
h -t 5.013639824 -s 11 -d 5 -p ack -e 76 -c 2 -a 0 -i 3 -k RTR
r -t 5.015813322 -s 5 -d 5 -p ack -e 40 -c 2 -a 0 -i 3 -k AGT
+ -t 5.015813322 -s 5 -d -1 -p tcp -e 1040 -c 2 -a 0 -i 4 -k AGT 
- -t 5.015813322 -s 5 -d -1 -p tcp -e 1040 -c 2 -a 0 -i 4 -k AGT
h -t 5.015813322 -s 5 -d -1 -p tcp -e 1040 -c 2 -a 0 -i 4 -k AGT
+ -t 5.015813322 -s 5 -d -1 -p tcp -e 1040 -c 2 -a 0 -i 5 -k AGT 
- -t 5.015813322 -s 5 -d -1 -p tcp -e 1040 -c 2 -a 0 -i 5 -k AGT
h -t 5.015813322 -s 5 -d -1 -p tcp -e 1040 -c 2 -a 0 -i 5 -k AGT
+ -t 5.015813322 -s 5 -d 11 -p tcp -e 1076 -c 2 -a 0 -i 4 -k RTR 
- -t 5.015813322 -s 5 -d 11 -p tcp -e 1076 -c 2 -a 0 -i 4 -k RTR
h -t 5.015813322 -s 5 -d 11 -p tcp -e 1076 -c 2 -a 0 -i 4 -k RTR
+ -t 5.015813322 -s 5 -d 11 -p tcp -e 1076 -c 2 -a 0 -i 5 -k RTR 
- -t 5.015813322 -s 5 -d 11 -p tcp -e 1076 -c 2 -a 0 -i 5 -k RTR
h -t 5.015813322 -s 5 -d 11 -p tcp -e 1076 -c 2 -a 0 -i 5 -k RTR
r -t 5.026146821 -s 11 -d 11 -p tcp -e 1040 -c 2 -a 0 -i 4 -k AGT
+ -t 5.026146821 -s 11 -d -1 -p ack -e 40 -c 2 -a 0 -i 6 -k AGT 
- -t 5.026146821 -s 11 -d -1 -p ack -e 40 -c 2 -a 0 -i 6 -k AGT
h -t 5.026146821 -s 11 -d -1 -p ack -e 40 -c 2 -a 0 -i 6 -k AGT
+ -t 5.026146821 -s 11 -d 5 -p ack -e 76 -c 2 -a 0 -i 6 -k RTR 
- -t 5.026146821 -s 11 -d 5 -p ack -e 76 -c 2 -a 0 -i 6 -k RTR
h -t 5.026146821 -s 11 -d 5 -p ack -e 76 -c 2 -a 0 -i 6 -k RTR
r -t 5.036560820 -s 11 -d 11 -p tcp -e 1040 -c 2 -a 0 -i 5 -k AGT
+ -t 5.036560820 -s 11 -d -1 -p ack -e 40 -c 2 -a 0 -i 7 -k AGT 
- -t 5.036560820 -s 11 -d -1 -p ack -e 40 -c 2 -a 0 -i 7 -k AGT
h -t 5.036560820 -s 11 -d -1 -p ack -e 40 -c 2 -a 0 -i 7 -k AGT
+ -t 5.036560820 -s 11 -d 5 -p ack -e 76 -c 2 -a 0 -i 7 -k RTR 
- -t 5.036560820 -s 11 -d 5 -p ack -e 76 -c 2 -a 0 -i 7 -k RTR
h -t 5.036560820 -s 11 -d 5 -p ack -e 76 -c 2 -a 0 -i 7 -k RTR
r -t 5.038694320 -s 5 -d 5 -p ack -e 40 -c 2 -a 0 -i 6 -k AGT
+ -t 5.038694320 -s 5 -d -1 -p tcp -e 1040 -c 2 -a 0 -i 8 -k AGT 
- -t 5.038694320 -s 5 -d -1 -p tcp -e 1040 -c 2 -a 0 -i 8 -k AGT
h -t 5.038694320 -s 5 -d -1 -p tcp -e 1040 -c 2 -a 0 -i 8 -k AGT
+ -t 5.038694320 -s 5 -d -1 -p tcp -e 1040 -c 2 -a 0 -i 9 -k AGT 
- -t 5.038694320 -s 5 -d -1 -p tcp -e 1040 -c 2 -a 0 -i 9 -k AGT
h -t 5.038694320 -s 5 -d -1 -p tcp -e 1040 -c 2 -a 0 -i 9 -k AGT
+ -t 5.038694320 -s 5 -d 11 -p tcp -e 1060 -c 2 -a 0 -i 8 -k RTR 
- -t 5.038694320 -s 5 -d 11 -p tcp -e 1060 -c 2 -a 0 -i 8 -k RTR
h -t 5.038694320 -s 5 -d 11 -p tcp -e 1060 -c 2 -a 0 -i 8 -k RTR
+ -t 5.038694320 -s 5 -d 11 -p tcp -e 1060 -c 2 -a 0 -i 9 -k RTR 
- -t 5.038694320 -s 5 -d 11 -p tcp -e 1060 -c 2 -a 0 -i 9 -k RTR
h -t 5.038694320 -s 5 -d 11 -p tcp -e 1060 -c 2 -a 0 -i 9 -k RTR
r -t 5.048799819 -s 11 -d 11 -p tcp -e 1040 -c 2 -a 0 -i 8 -k AGT
+ -t 5.048799819 -s 11 -d -1 -p ack -e 40 -c 2 -a 0 -i 10 -k AGT 
- -t 5.048799819 -s 11 -d -1 -p ack -e 40 -c 2 -a 0 -i 10 -k AGT
h -t 5.048799819 -s 11 -d -1 -p ack -e 40 -c 2 -a 0 -i 10 -k AGT
+ -t 5.048799819 -s 11 -d 5 -p ack -e 60 -c 2 -a 0 -i 10 -k RTR 
- -t 5.048799819 -s 11 -d 5 -p ack -e 60 -c 2 -a 0 -i 10 -k RTR
h -t 5.048799819 -s 11 -d 5 -p ack -e 60 -c 2 -a 0 -i 10 -k RTR
r -t 5.051193319 -s 5 -d 5 -p ack -e 40 -c 2 -a 0 -i 7 -k AGT
+ -t 5.051193319 -s 5 -d -1 -p tcp -e 1040 -c 2 -a 0 -i 11 -k AGT 
- -t 5.051193319 -s 5 -d -1 -p tcp -e 1040 -c 2 -a 0 -i 11 -k AGT
h -t 5.051193319 -s 5 -d -1 -p tcp -e 1040 -c 2 -a 0 -i 11 -k AGT
+ -t 5.051193319 -s 5 -d -1 -p tcp -e 1040 -c 2 -a 0 -i 12 -k AGT 
- -t 5.051193319 -s 5 -d -1 -p tcp -e 1040 -c 2 -a 0 -i 12 -k AGT
h -t 5.051193319 -s 5 -d -1 -p tcp -e 1040 -c 2 -a 0 -i 12 -k AGT
+ -t 5.051193319 -s 5 -d 11 -p tcp -e 1060 -c 2 -a 0 -i 11 -k RTR 
- -t 5.051193319 -s 5 -d 11 -p tcp -e 1060 -c 2 -a 0 -i 11 -k RTR
h -t 5.051193319 -s 5 -d 11 -p tcp -e 1060 -c 2 -a 0 -i 11 -k RTR
+ -t 5.051193319 -s 5 -d 11 -p tcp -e 1060 -c 2 -a 0 -i 12 -k RTR 
- -t 5.051193319 -s 5 -d 11 -p tcp -e 1060 -c 2 -a 0 -i 12 -k RTR
h -t 5.051193319 -s 5 -d 11 -p tcp -e 1060 -c 2 -a 0 -i 12 -k RTR
r -t 5.061438819 -s 11 -d 11 -p tcp -e 1040 -c 2 -a 0 -i 9 -k AGT
+ -t 5.061438819 -s 11 -d -1 -p ack -e 40 -c 2 -a 0 -i 13 -k AGT 
- -t 5.061438819 -s 11 -d -1 -p ack -e 40 -c 2 -a 0 -i 13 -k AGT
h -t 5.061438819 -s 11 -d -1 -p ack -e 40 -c 2 -a 0 -i 13 -k AGT
+ -t 5.061438819 -s 11 -d 5 -p ack -e 60 -c 2 -a 0 -i 13 -k RTR 
- -t 5.061438819 -s 11 -d 5 -p ack -e 60 -c 2 -a 0 -i 13 -k RTR
h -t 5.061438819 -s 11 -d 5 -p ack -e 60 -c 2 -a 0 -i 13 -k RTR
r -t 5.063524319 -s 5 -d 5 -p ack -e 40 -c 2 -a 0 -i 10 -k AGT
+ -t 5.063524319 -s 5 -d -1 -p tcp -e 1040 -c 2 -a 0 -i 14 -k AGT 
- -t 5.063524319 -s 5 -d -1 -p tcp -e 1040 -c 2 -a 0 -i 14 -k AGT
h -t 5.063524319 -s 5 -d -1 -p tcp -e 1040 -c 2 -a 0 -i 14 -k AGT
+ -t 5.063524319 -s 5 -d -1 -p tcp -e 1040 -c 2 -a 0 -i 15 -k AGT 
- -t 5.063524319 -s 5 -d -1 -p tcp -e 1040 -c 2 -a 0 -i 15 -k AGT
h -t 5.063524319 -s 5 -d -1 -p tcp -e 1040 -c 2 -a 0 -i 15 -k AGT
+ -t 5.063524319 -s 5 -d 11 -p tcp -e 1060 -c 2 -a 0 -i 14 -k RTR 
- -t 5.063524319 -s 5 -d 11 -p tcp -e 1060 -c 2 -a 0 -i 14 -k RTR
h -t 5.063524319 -s 5 -d 11 -p tcp -e 1060 -c 2 -a 0 -i 14 -k RTR
+ -t 5.063524319 -s 5 -d 11 -p tcp -e 1060 -c 2 -a 0 -i 15 -k RTR 
- -t 5.063524319 -s 5 -d 11 -p tcp -e 1060 -c 2 -a 0 -i 15 -k RTR
h -t 5.063524319 -s 5 -d 11 -p tcp -e 1060 -c 2 -a 0 -i 15 -k RTR
r -t 5.073629820 -s 11 -d 11 -p tcp -e 1040 -c 2 -a 0 -i 11 -k AGT
+ -t 5.073629820 -s 11 -d -1 -p ack -e 40 -c 2 -a 0 -i 16 -k AGT 
- -t 5.073629820 -s 11 -d -1 -p ack -e 40 -c 2 -a 0 -i 16 -k AGT
h -t 5.073629820 -s 11 -d -1 -p ack -e 40 -c 2 -a 0 -i 16 -k AGT
+ -t 5.073629820 -s 11 -d 5 -p ack -e 60 -c 2 -a 0 -i 16 -k RTR 
- -t 5.073629820 -s 11 -d 5 -p ack -e 60 -c 2 -a 0 -i 16 -k RTR
h -t 5.073629820 -s 11 -d 5 -p ack -e 60 -c 2 -a 0 -i 16 -k RTR
r -t 5.075655321 -s 5 -d 5 -p ack -e 40 -c 2 -a 0 -i 13 -k AGT
+ -t 5.075655321 -s 5 -d -1 -p tcp -e 1040 -c 2 -a 0 -i 17 -k AGT 
- -t 5.075655321 -s 5 -d -1 -p tcp -e 1040 -c 2 -a 0 -i 17 -k AGT
h -t 5.075655321 -s 5 -d -1 -p tcp -e 1040 -c 2 -a 0 -i 17 -k AGT
+ -t 5.075655321 -s 5 -d -1 -p tcp -e 1040 -c 2 -a 0 -i 18 -k AGT 
- -t 5.075655321 -s 5 -d -1 -p tcp -e 1040 -c 2 -a 0 -i 18 -k AGT
h -t 5.075655321 -s 5 -d -1 -p tcp -e 1040 -c 2 -a 0 -i 18 -k AGT
+ -t 5.075655321 -s 5 -d 11 -p tcp -e 1060 -c 2 -a 0 -i 17 -k RTR 
- -t 5.075655321 -s 5 -d 11 -p tcp -e 1060 -c 2 -a 0 -i 17 -k RTR
h -t 5.075655321 -s 5 -d 11 -p tcp -e 1060 -c 2 -a 0 -i 17 -k RTR
+ -t 5.075655321 -s 5 -d 11 -p tcp -e 1060 -c 2 -a 0 -i 18 -k RTR 
- -t 5.075655321 -s 5 -d 11 -p tcp -e 1060 -c 2 -a 0 -i 18 -k RTR
h -t 5.075655321 -s 5 -d 11 -p tcp -e 1060 -c 2 -a 0 -i 18 -k RTR
r -t 5.085700822 -s 11 -d 11 -p tcp -e 1040 -c 2 -a 0 -i 12 -k AGT
+ -t 5.085700822 -s 11 -d -1 -p ack -e 40 -c 2 -a 0 -i 19 -k AGT 
- -t 5.085700822 -s 11 -d -1 -p ack -e 40 -c 2 -a 0 -i 19 -k AGT
h -t 5.085700822 -s 11 -d -1 -p ack -e 40 -c 2 -a 0 -i 19 -k AGT
+ -t 5.085700822 -s 11 -d 5 -p ack -e 60 -c 2 -a 0 -i 19 -k RTR 
- -t 5.085700822 -s 11 -d 5 -p ack -e 60 -c 2 -a 0 -i 19 -k RTR
h -t 5.085700822 -s 11 -d 5 -p ack -e 60 -c 2 -a 0 -i 19 -k RTR
r -t 5.096066823 -s 11 -d 11 -p tcp -e 1040 -c 2 -a 0 -i 14 -k AGT
+ -t 5.096066823 -s 11 -d -1 -p ack -e 40 -c 2 -a 0 -i 20 -k AGT 
- -t 5.096066823 -s 11 -d -1 -p ack -e 40 -c 2 -a 0 -i 20 -k AGT
h -t 5.096066823 -s 11 -d -1 -p ack -e 40 -c 2 -a 0 -i 20 -k AGT
+ -t 5.096066823 -s 11 -d 5 -p ack -e 60 -c 2 -a 0 -i 20 -k RTR 
- -t 5.096066823 -s 11 -d 5 -p ack -e 60 -c 2 -a 0 -i 20 -k RTR
h -t 5.096066823 -s 11 -d 5 -p ack -e 60 -c 2 -a 0 -i 20 -k RTR
r -t 5.098072325 -s 5 -d 5 -p ack -e 40 -c 2 -a 0 -i 16 -k AGT
+ -t 5.098072325 -s 5 -d -1 -p tcp -e 1040 -c 2 -a 0 -i 21 -k AGT 
- -t 5.098072325 -s 5 -d -1 -p tcp -e 1040 -c 2 -a 0 -i 21 -k AGT
h -t 5.098072325 -s 5 -d -1 -p tcp -e 1040 -c 2 -a 0 -i 21 -k AGT
+ -t 5.098072325 -s 5 -d -1 -p tcp -e 1040 -c 2 -a 0 -i 22 -k AGT 
- -t 5.098072325 -s 5 -d -1 -p tcp -e 1040 -c 2 -a 0 -i 22 -k AGT
h -t 5.098072325 -s 5 -d -1 -p tcp -e 1040 -c 2 -a 0 -i 22 -k AGT
+ -t 5.098072325 -s 5 -d 11 -p tcp -e 1060 -c 2 -a 0 -i 21 -k RTR 
- -t 5.098072325 -s 5 -d 11 -p tcp -e 1060 -c 2 -a 0 -i 21 -k RTR
h -t 5.098072325 -s 5 -d 11 -p tcp -e 1060 -c 2 -a 0 -i 21 -k RTR
+ -t 5.098072325 -s 5 -d 11 -p tcp -e 1060 -c 2 -a 0 -i 22 -k RTR 
- -t 5.098072325 -s 5 -d 11 -p tcp -e 1060 -c 2 -a 0 -i 22 -k RTR
h -t 5.098072325 -s 5 -d 11 -p tcp -e 1060 -c 2 -a 0 -i 22 -k RTR
r -t 5.100358327 -s 5 -d 5 -p ack -e 40 -c 2 -a 0 -i 19 -k AGT
+ -t 5.100358327 -s 5 -d -1 -p tcp -e 1040 -c 2 -a 0 -i 23 -k AGT 
- -t 5.100358327 -s 5 -d -1 -p tcp -e 1040 -c 2 -a 0 -i 23 -k AGT
h -t 5.100358327 -s 5 -d -1 -p tcp -e 1040 -c 2 -a 0 -i 23 -k AGT
+ -t 5.100358327 -s 5 -d -1 -p tcp -e 1040 -c 2 -a 0 -i 24 -k AGT 
- -t 5.100358327 -s 5 -d -1 -p tcp -e 1040 -c 2 -a 0 -i 24 -k AGT
h -t 5.100358327 -s 5 -d -1 -p tcp -e 1040 -c 2 -a 0 -i 24 -k AGT
+ -t 5.100358327 -s 5 -d 11 -p tcp -e 1060 -c 2 -a 0 -i 23 -k RTR 
- -t 5.100358327 -s 5 -d 11 -p tcp -e 1060 -c 2 -a 0 -i 23 -k RTR
h -t 5.100358327 -s 5 -d 11 -p tcp -e 1060 -c 2 -a 0 -i 23 -k RTR
+ -t 5.100358327 -s 5 -d 11 -p tcp -e 1060 -c 2 -a 0 -i 24 -k RTR 
- -t 5.100358327 -s 5 -d 11 -p tcp -e 1060 -c 2 -a 0 -i 24 -k RTR
h -t 5.100358327 -s 5 -d 11 -p tcp -e 1060 -c 2 -a 0 -i 24 -k RTR
r -t 5.102464329 -s 5 -d 5 -p ack -e 40 -c 2 -a 0 -i 20 -k AGT
+ -t 5.102464329 -s 5 -d -1 -p tcp -e 1040 -c 2 -a 0 -i 25 -k AGT 
- -t 5.102464329 -s 5 -d -1 -p tcp -e 1040 -c 2 -a 0 -i 25 -k AGT
h -t 5.102464329 -s 5 -d -1 -p tcp -e 1040 -c 2 -a 0 -i 25 -k AGT
+ -t 5.102464329 -s 5 -d -1 -p tcp -e 1040 -c 2 -a 0 -i 26 -k AGT 
- -t 5.102464329 -s 5 -d -1 -p tcp -e 1040 -c 2 -a 0 -i 26 -k AGT
h -t 5.102464329 -s 5 -d -1 -p tcp -e 1040 -c 2 -a 0 -i 26 -k AGT
+ -t 5.102464329 -s 5 -d 11 -p tcp -e 1060 -c 2 -a 0 -i 25 -k RTR 
- -t 5.102464329 -s 5 -d 11 -p tcp -e 1060 -c 2 -a 0 -i 25 -k RTR
h -t 5.102464329 -s 5 -d 11 -p tcp -e 1060 -c 2 -a 0 -i 25 -k RTR
+ -t 5.102464329 -s 5 -d 11 -p tcp -e 1060 -c 2 -a 0 -i 26 -k RTR 
- -t 5.102464329 -s 5 -d 11 -p tcp -e 1060 -c 2 -a 0 -i 26 -k RTR
h -t 5.102464329 -s 5 -d 11 -p tcp -e 1060 -c 2 -a 0 -i 26 -k RTR
r -t 5.112469831 -s 11 -d 11 -p tcp -e 1040 -c 2 -a 0 -i 15 -k AGT
+ -t 5.112469831 -s 11 -d -1 -p ack -e 40 -c 2 -a 0 -i 27 -k AGT 
- -t 5.112469831 -s 11 -d -1 -p ack -e 40 -c 2 -a 0 -i 27 -k AGT
h -t 5.112469831 -s 11 -d -1 -p ack -e 40 -c 2 -a 0 -i 27 -k AGT
+ -t 5.112469831 -s 11 -d 5 -p ack -e 60 -c 2 -a 0 -i 27 -k RTR 
- -t 5.112469831 -s 11 -d 5 -p ack -e 60 -c 2 -a 0 -i 27 -k RTR
h -t 5.112469831 -s 11 -d 5 -p ack -e 60 -c 2 -a 0 -i 27 -k RTR
r -t 5.122695834 -s 11 -d 11 -p tcp -e 1040 -c 2 -a 0 -i 17 -k AGT
+ -t 5.122695834 -s 11 -d -1 -p ack -e 40 -c 2 -a 0 -i 28 -k AGT 
- -t 5.122695834 -s 11 -d -1 -p ack -e 40 -c 2 -a 0 -i 28 -k AGT
h -t 5.122695834 -s 11 -d -1 -p ack -e 40 -c 2 -a 0 -i 28 -k AGT
+ -t 5.122695834 -s 11 -d 5 -p ack -e 60 -c 2 -a 0 -i 28 -k RTR 
- -t 5.122695834 -s 11 -d 5 -p ack -e 60 -c 2 -a 0 -i 28 -k RTR
h -t 5.122695834 -s 11 -d 5 -p ack -e 60 -c 2 -a 0 -i 28 -k RTR
r -t 5.124981336 -s 5 -d 5 -p ack -e 40 -c 2 -a 0 -i 27 -k AGT
+ -t 5.124981336 -s 5 -d -1 -p tcp -e 1040 -c 2 -a 0 -i 29 -k AGT 
- -t 5.124981336 -s 5 -d -1 -p tcp -e 1040 -c 2 -a 0 -i 29 -k AGT
h -t 5.124981336 -s 5 -d -1 -p tcp -e 1040 -c 2 -a 0 -i 29 -k AGT
+ -t 5.124981336 -s 5 -d -1 -p tcp -e 1040 -c 2 -a 0 -i 30 -k AGT 
- -t 5.124981336 -s 5 -d -1 -p tcp -e 1040 -c 2 -a 0 -i 30 -k AGT
h -t 5.124981336 -s 5 -d -1 -p tcp -e 1040 -c 2 -a 0 -i 30 -k AGT
+ -t 5.124981336 -s 5 -d 11 -p tcp -e 1060 -c 2 -a 0 -i 29 -k RTR 
- -t 5.124981336 -s 5 -d 11 -p tcp -e 1060 -c 2 -a 0 -i 29 -k RTR
h -t 5.124981336 -s 5 -d 11 -p tcp -e 1060 -c 2 -a 0 -i 29 -k RTR
+ -t 5.124981336 -s 5 -d 11 -p tcp -e 1060 -c 2 -a 0 -i 30 -k RTR 
- -t 5.124981336 -s 5 -d 11 -p tcp -e 1060 -c 2 -a 0 -i 30 -k RTR
h -t 5.124981336 -s 5 -d 11 -p tcp -e 1060 -c 2 -a 0 -i 30 -k RTR
r -t 5.135226839 -s 11 -d 11 -p tcp -e 1040 -c 2 -a 0 -i 18 -k AGT
+ -t 5.135226839 -s 11 -d -1 -p ack -e 40 -c 2 -a 0 -i 31 -k AGT 
- -t 5.135226839 -s 11 -d -1 -p ack -e 40 -c 2 -a 0 -i 31 -k AGT
h -t 5.135226839 -s 11 -d -1 -p ack -e 40 -c 2 -a 0 -i 31 -k AGT
+ -t 5.135226839 -s 11 -d 5 -p ack -e 60 -c 2 -a 0 -i 31 -k RTR 
- -t 5.135226839 -s 11 -d 5 -p ack -e 60 -c 2 -a 0 -i 31 -k RTR
h -t 5.135226839 -s 11 -d 5 -p ack -e 60 -c 2 -a 0 -i 31 -k RTR
r -t 5.137372342 -s 5 -d 5 -p ack -e 40 -c 2 -a 0 -i 28 -k AGT
+ -t 5.137372342 -s 5 -d -1 -p tcp -e 1040 -c 2 -a 0 -i 32 -k AGT 
- -t 5.137372342 -s 5 -d -1 -p tcp -e 1040 -c 2 -a 0 -i 32 -k AGT
h -t 5.137372342 -s 5 -d -1 -p tcp -e 1040 -c 2 -a 0 -i 32 -k AGT
+ -t 5.137372342 -s 5 -d -1 -p tcp -e 1040 -c 2 -a 0 -i 33 -k AGT 
- -t 5.137372342 -s 5 -d -1 -p tcp -e 1040 -c 2 -a 0 -i 33 -k AGT
h -t 5.137372342 -s 5 -d -1 -p tcp -e 1040 -c 2 -a 0 -i 33 -k AGT
+ -t 5.137372342 -s 5 -d 11 -p tcp -e 1060 -c 2 -a 0 -i 32 -k RTR 
- -t 5.137372342 -s 5 -d 11 -p tcp -e 1060 -c 2 -a 0 -i 32 -k RTR
h -t 5.137372342 -s 5 -d 11 -p tcp -e 1060 -c 2 -a 0 -i 32 -k RTR
+ -t 5.137372342 -s 5 -d 11 -p tcp -e 1060 -c 2 -a 0 -i 33 -k RTR 
- -t 5.137372342 -s 5 -d 11 -p tcp -e 1060 -c 2 -a 0 -i 33 -k RTR
h -t 5.137372342 -s 5 -d 11 -p tcp -e 1060 -c 2 -a 0 -i 33 -k RTR
r -t 5.139538346 -s 5 -d 5 -p ack -e 40 -c 2 -a 0 -i 31 -k AGT
+ -t 5.139538346 -s 5 -d -1 -p tcp -e 1040 -c 2 -a 0 -i 34 -k AGT 
- -t 5.139538346 -s 5 -d -1 -p tcp -e 1040 -c 2 -a 0 -i 34 -k AGT
h -t 5.139538346 -s 5 -d -1 -p tcp -e 1040 -c 2 -a 0 -i 34 -k AGT
+ -t 5.139538346 -s 5 -d -1 -p tcp -e 1040 -c 2 -a 0 -i 35 -k AGT 
- -t 5.139538346 -s 5 -d -1 -p tcp -e 1040 -c 2 -a 0 -i 35 -k AGT
h -t 5.139538346 -s 5 -d -1 -p tcp -e 1040 -c 2 -a 0 -i 35 -k AGT
+ -t 5.139538346 -s 5 -d 11 -p tcp -e 1060 -c 2 -a 0 -i 34 -k RTR 
- -t 5.139538346 -s 5 -d 11 -p tcp -e 1060 -c 2 -a 0 -i 34 -k RTR
h -t 5.139538346 -s 5 -d 11 -p tcp -e 1060 -c 2 -a 0 -i 34 -k RTR
+ -t 5.139538346 -s 5 -d 11 -p tcp -e 1060 -c 2 -a 0 -i 35 -k RTR 
- -t 5.139538346 -s 5 -d 11 -p tcp -e 1060 -c 2 -a 0 -i 35 -k RTR
h -t 5.139538346 -s 5 -d 11 -p tcp -e 1060 -c 2 -a 0 -i 35 -k RTR
r -t 5.149563849 -s 11 -d 11 -p tcp -e 1040 -c 2 -a 0 -i 21 -k AGT
+ -t 5.149563849 -s 11 -d -1 -p ack -e 40 -c 2 -a 0 -i 36 -k AGT 
- -t 5.149563849 -s 11 -d -1 -p ack -e 40 -c 2 -a 0 -i 36 -k AGT
h -t 5.149563849 -s 11 -d -1 -p ack -e 40 -c 2 -a 0 -i 36 -k AGT
+ -t 5.149563849 -s 11 -d 5 -p ack -e 60 -c 2 -a 0 -i 36 -k RTR 
- -t 5.149563849 -s 11 -d 5 -p ack -e 60 -c 2 -a 0 -i 36 -k RTR
h -t 5.149563849 -s 11 -d 5 -p ack -e 60 -c 2 -a 0 -i 36 -k RTR
r -t 5.159769854 -s 11 -d 11 -p tcp -e 1040 -c 2 -a 0 -i 22 -k AGT
+ -t 5.159769854 -s 11 -d -1 -p ack -e 40 -c 2 -a 0 -i 37 -k AGT 
- -t 5.159769854 -s 11 -d -1 -p ack -e 40 -c 2 -a 0 -i 37 -k AGT
h -t 5.159769854 -s 11 -d -1 -p ack -e 40 -c 2 -a 0 -i 37 -k AGT
+ -t 5.159769854 -s 11 -d 5 -p ack -e 60 -c 2 -a 0 -i 37 -k RTR 
- -t 5.159769854 -s 11 -d 5 -p ack -e 60 -c 2 -a 0 -i 37 -k RTR
h -t 5.159769854 -s 11 -d 5 -p ack -e 60 -c 2 -a 0 -i 37 -k RTR
r -t 5.169815859 -s 11 -d 11 -p tcp -e 1040 -c 2 -a 0 -i 23 -k AGT
+ -t 5.169815859 -s 11 -d -1 -p ack -e 40 -c 2 -a 0 -i 38 -k AGT 
- -t 5.169815859 -s 11 -d -1 -p ack -e 40 -c 2 -a 0 -i 38 -k AGT
h -t 5.169815859 -s 11 -d -1 -p ack -e 40 -c 2 -a 0 -i 38 -k AGT
+ -t 5.169815859 -s 11 -d 5 -p ack -e 60 -c 2 -a 0 -i 38 -k RTR 
- -t 5.169815859 -s 11 -d 5 -p ack -e 60 -c 2 -a 0 -i 38 -k RTR
h -t 5.169815859 -s 11 -d 5 -p ack -e 60 -c 2 -a 0 -i 38 -k RTR
r -t 5.171861363 -s 5 -d 5 -p ack -e 40 -c 2 -a 0 -i 36 -k AGT
+ -t 5.171861363 -s 5 -d -1 -p tcp -e 1040 -c 2 -a 0 -i 39 -k AGT 
- -t 5.171861363 -s 5 -d -1 -p tcp -e 1040 -c 2 -a 0 -i 39 -k AGT
h -t 5.171861363 -s 5 -d -1 -p tcp -e 1040 -c 2 -a 0 -i 39 -k AGT
+ -t 5.171861363 -s 5 -d -1 -p tcp -e 1040 -c 2 -a 0 -i 40 -k AGT 
- -t 5.171861363 -s 5 -d -1 -p tcp -e 1040 -c 2 -a 0 -i 40 -k AGT
h -t 5.171861363 -s 5 -d -1 -p tcp -e 1040 -c 2 -a 0 -i 40 -k AGT
+ -t 5.171861363 -s 5 -d 11 -p tcp -e 1060 -c 2 -a 0 -i 39 -k RTR 
- -t 5.171861363 -s 5 -d 11 -p tcp -e 1060 -c 2 -a 0 -i 39 -k RTR
h -t 5.171861363 -s 5 -d 11 -p tcp -e 1060 -c 2 -a 0 -i 39 -k RTR
+ -t 5.171861363 -s 5 -d 11 -p tcp -e 1060 -c 2 -a 0 -i 40 -k RTR 
- -t 5.171861363 -s 5 -d 11 -p tcp -e 1060 -c 2 -a 0 -i 40 -k RTR